
     Program PWSCF v.6.4.1 starts on  3Jul2020 at 10:24: 6 

     This program is part of the open-source Quantum ESPRESSO suite
     for quantum simulation of materials; please cite
         "P. Giannozzi et al., J. Phys.:Condens. Matter 21 395502 (2009);
         "P. Giannozzi et al., J. Phys.:Condens. Matter 29 465901 (2017);
          URL http://www.quantum-espresso.org", 
     in publications or presentations arising from this work. More details at
     http://www.quantum-espresso.org/quote

     Parallel version (MPI), running on     1 processors

     MPI processes distributed on     1 nodes
     Reading input from testinput.in
Warning: card &CELL ignored
Warning: card / ignored

     Current dimensions of program PWSCF are:
     Max number of different atomic species (ntypx) = 10
     Max number of k-points (npk) =  40000
     Max angular momentum in pseudopotentials (lmaxx) =  3
     Message from routine volume:
     axis vectors are left-handed
               file Si.pbe-n-kjpaw_psl.1.0.0.UPF: wavefunction(s)  3S 3P renormalized

     Subspace diagonalization in iterative solution of the eigenvalue problem:
     a serial algorithm will be used

     Message from routine setup:
     DEPRECATED: symmetry with ibrav=0, use correct ibrav instead

     G-vector sticks info
     --------------------
     sticks:   dense  smooth     PW     G-vecs:    dense   smooth      PW
     Sum         409     409    127                 5329     5329     965



     bravais-lattice index     =            0
     lattice parameter (alat)  =       5.4307  a.u.
     unit-cell volume          =      40.0412 (a.u.)^3
     number of atoms/cell      =            1
     number of atomic types    =            1
     number of electrons       =         4.00
     number of Kohn-Sham states=            2
     kinetic-energy cutoff     =     100.0000  Ry
     charge density cutoff     =     400.0000  Ry
     convergence threshold     =      1.0E-06
     mixing beta               =       0.7000
     number of iterations used =            8  plain     mixing
     Exchange-correlation      = SLA PW PBX PBC ( 1  4  3  4 0 0)

     celldm(1)=   5.430700  celldm(2)=   0.000000  celldm(3)=   0.000000
     celldm(4)=   0.000000  celldm(5)=   0.000000  celldm(6)=   0.000000

     crystal axes: (cart. coord. in units of alat)
               a(1) = (   0.500000   0.500000   0.000000 )  
               a(2) = (   0.500000   0.000000   0.500000 )  
               a(3) = (   0.000000   0.500000   0.500000 )  

     reciprocal axes: (cart. coord. in units 2 pi/alat)
               b(1) = (  1.000000  1.000000 -1.000000 )  
               b(2) = (  1.000000 -1.000000  1.000000 )  
               b(3) = ( -1.000000  1.000000  1.000000 )  


     PseudoPot. # 1 for Si read from file:
     ./Si.pbe-n-kjpaw_psl.1.0.0.UPF
     MD5 check sum: c39c59da582df4a0d9f10159256ea34e
     Pseudo is Projector augmented-wave + core cor, Zval =  4.0
     Generated using "atomic" code by A. Dal Corso v.6.3
     Shape of augmentation charge: PSQ
     Using radial grid of 1141 points,  6 beta functions with: 
                l(1) =   0
                l(2) =   0
                l(3) =   1
                l(4) =   1
                l(5) =   2
                l(6) =   2
     Q(r) pseudized with 0 coefficients 


     atomic species   valence    mass     pseudopotential
        Si             4.00    28.08500     Si( 1.00)

     48 Sym. Ops., with inversion, found



   Cartesian axes

     site n.     atom                  positions (alat units)
         1           Si  tau(   1) = (   0.0000000   0.0000000   0.0000000  )

     number of k points=    20
                       cart. coord. in units 2pi/alat
        k(    1) = (   0.0000000   0.0000000   0.0000000), wk =   0.0058309
        k(    2) = (  -0.1428571   0.1428571   0.1428571), wk =   0.0466472
        k(    3) = (  -0.2857143   0.2857143   0.2857143), wk =   0.0466472
        k(    4) = (  -0.4285714   0.4285714   0.4285714), wk =   0.0466472
        k(    5) = (   0.0000000   0.0000000   0.2857143), wk =   0.0349854
        k(    6) = (  -0.1428571   0.1428571   0.4285714), wk =   0.1399417
        k(    7) = (  -0.2857143   0.2857143   0.5714286), wk =   0.1399417
        k(    8) = (   0.5714286  -0.5714286  -0.2857143), wk =   0.1399417
        k(    9) = (   0.4285714  -0.4285714  -0.1428571), wk =   0.1399417
        k(   10) = (   0.2857143  -0.2857143  -0.0000000), wk =   0.0699708
        k(   11) = (   0.0000000   0.0000000   0.5714286), wk =   0.0349854
        k(   12) = (  -0.1428571   0.1428571   0.7142857), wk =   0.1399417
        k(   13) = (   0.7142857  -0.7142857  -0.1428571), wk =   0.1399417
        k(   14) = (   0.5714286  -0.5714286   0.0000000), wk =   0.0699708
        k(   15) = (   0.0000000   0.0000000   0.8571429), wk =   0.0349854
        k(   16) = (   0.8571429  -0.8571429  -0.0000000), wk =   0.0699708
        k(   17) = (   0.0000000   0.2857143   0.5714286), wk =   0.1399417
        k(   18) = (   0.8571429  -0.5714286  -0.2857143), wk =   0.2798834
        k(   19) = (   1.0000000  -0.7142857  -0.1428571), wk =   0.1399417
        k(   20) = (   0.8571429  -0.5714286   0.0000000), wk =   0.1399417

     Dense  grid:     5329 G-vectors     FFT dimensions: (  25,  25,  25)

     Estimated max dynamical RAM per process >      21.64 MB

     Initial potential from superposition of free atoms

     starting charge    3.99944, renormalised to    4.00000
     Starting wfcs are    4 randomized atomic wfcs
     Checking if some PAW data can be deallocated... 

     total cpu time spent up to now is        1.1 secs

     Self-consistent Calculation

     iteration #  1     ecut=   100.00 Ry     beta= 0.70
     Davidson diagonalization with overlap
     ethr =  1.00E-02,  avg # of iterations =  3.1

     Threshold (ethr) on eigenvalues was too large:
     Diagonalizing with lowered threshold

     Davidson diagonalization with overlap
     ethr =  4.15E-04,  avg # of iterations =  1.9

     total cpu time spent up to now is        1.4 secs

     total energy              =     -45.99702247 Ry
     Harris-Foulkes estimate   =     -45.99651118 Ry
     estimated scf accuracy    <       0.01217617 Ry

     iteration #  2     ecut=   100.00 Ry     beta= 0.70
     Davidson diagonalization with overlap
     ethr =  3.04E-04,  avg # of iterations =  1.0

     total cpu time spent up to now is        1.6 secs

     total energy              =     -45.99753617 Ry
     Harris-Foulkes estimate   =     -45.99726620 Ry
     estimated scf accuracy    <       0.00108569 Ry

     iteration #  3     ecut=   100.00 Ry     beta= 0.70
     Davidson diagonalization with overlap
     ethr =  2.71E-05,  avg # of iterations =  2.1

     total cpu time spent up to now is        1.8 secs

     total energy              =     -46.00727866 Ry
     Harris-Foulkes estimate   =     -46.00729173 Ry
     estimated scf accuracy    <       0.00008295 Ry

     iteration #  4     ecut=   100.00 Ry     beta= 0.70
     Davidson diagonalization with overlap
     ethr =  2.07E-06,  avg # of iterations =  1.8

     total cpu time spent up to now is        2.1 secs

     total energy              =     -46.00727656 Ry
     Harris-Foulkes estimate   =     -46.00728919 Ry
     estimated scf accuracy    <       0.00003442 Ry

     iteration #  5     ecut=   100.00 Ry     beta= 0.70
     Davidson diagonalization with overlap
     ethr =  8.61E-07,  avg # of iterations =  1.2

     total cpu time spent up to now is        2.4 secs

     total energy              =     -46.00727710 Ry
     Harris-Foulkes estimate   =     -46.00727826 Ry
     estimated scf accuracy    <       0.00000292 Ry

     iteration #  6     ecut=   100.00 Ry     beta= 0.70
     Davidson diagonalization with overlap
     ethr =  7.29E-08,  avg # of iterations =  1.9

     total cpu time spent up to now is        2.6 secs

     End of self-consistent calculation

          k = 0.0000 0.0000 0.0000 (   645 PWs)   bands (ev):

     2.9054  44.2814

          k =-0.1429 0.1429 0.1429 (   667 PWs)   bands (ev):

     3.9566  36.7396

          k =-0.2857 0.2857 0.2857 (   676 PWs)   bands (ev):

     7.0385  27.2348

          k =-0.4286 0.4286 0.4286 (   673 PWs)   bands (ev):

    11.8830  19.1214

          k = 0.0000 0.0000 0.2857 (   673 PWs)   bands (ev):

     4.3046  38.7120

          k =-0.1429 0.1429 0.4286 (   672 PWs)   bands (ev):

     6.7029  30.7653

          k =-0.2857 0.2857 0.5714 (   677 PWs)   bands (ev):

    10.9751  22.3426

          k = 0.5714-0.5714-0.2857 (   676 PWs)   bands (ev):

    14.3864  17.8702

          k = 0.4286-0.4286-0.1429 (   680 PWs)   bands (ev):

     9.3610  24.9287

          k = 0.2857-0.2857-0.0000 (   670 PWs)   bands (ev):

     5.6822  32.6199

          k = 0.0000 0.0000 0.5714 (   673 PWs)   bands (ev):

     8.3824  33.1081

          k =-0.1429 0.1429 0.7143 (   678 PWs)   bands (ev):

    11.9599  26.6289

          k = 0.7143-0.7143-0.1429 (   688 PWs)   bands (ev):

    16.8236  19.9366

          k = 0.5714-0.5714 0.0000 (   682 PWs)   bands (ev):

    13.4861  22.9786

          k = 0.0000 0.0000 0.8571 (   676 PWs)   bands (ev):

    14.7814  23.7859

          k = 0.8571-0.8571-0.0000 (   684 PWs)   bands (ev):

    18.3399  20.6119

          k = 0.0000 0.2857 0.5714 (   673 PWs)   bands (ev):

     9.6944  27.6961

          k = 0.8571-0.5714-0.2857 (   674 PWs)   bands (ev):

    14.3822  21.2653

          k = 1.0000-0.7143-0.1429 (   684 PWs)   bands (ev):

    15.9584  24.3047

          k = 0.8571-0.5714 0.0000 (   683 PWs)   bands (ev):

    19.1161  20.6284

     highest occupied level (ev):    44.2814

!    total energy              =     -46.00727779 Ry
     Harris-Foulkes estimate   =     -46.00727781 Ry
     estimated scf accuracy    <       0.00000003 Ry

     total all-electron energy =      -579.353143 Ry

     The total energy is the sum of the following terms:

     one-electron contribution =      10.21182858 Ry
     hartree contribution      =       0.04036068 Ry
     xc contribution           =      -7.09366631 Ry
     ewald contribution        =     -13.50798114 Ry
     one-center paw contrib.   =     -35.65781960 Ry

     convergence has been achieved in   6 iterations

     Forces acting on atoms (cartesian axes, Ry/au):

     atom    1 type  1   force =     0.00000000    0.00000000    0.00000000

     Total force =     0.000000     Total SCF correction =     0.000000


     Computing stress (Cartesian axis) and pressure

          total   stress  (Ry/bohr**3)                   (kbar)     P= 5723.64
   0.03890854   0.00000000  -0.00000000       5723.64      0.00     -0.00
   0.00000000   0.03890854   0.00000000          0.00   5723.64      0.00
  -0.00000000   0.00000000   0.03890854         -0.00      0.00   5723.64


     Writing output data file pwscf.save/

     init_run     :      0.53s CPU      0.57s WALL (       1 calls)
     electrons    :      1.41s CPU      1.52s WALL (       1 calls)
     forces       :      0.03s CPU      0.03s WALL (       1 calls)
     stress       :      0.11s CPU      0.12s WALL (       1 calls)

     Called by init_run:
     wfcinit      :      0.05s CPU      0.04s WALL (       1 calls)
     potinit      :      0.16s CPU      0.17s WALL (       1 calls)
     hinit0       :      0.33s CPU      0.33s WALL (       1 calls)

     Called by electrons:
     c_bands      :      0.30s CPU      0.37s WALL (       7 calls)
     sum_band     :      0.11s CPU      0.15s WALL (       7 calls)
     v_of_rho     :      0.08s CPU      0.03s WALL (       7 calls)
     newd         :      0.05s CPU      0.07s WALL (       7 calls)
     PAW_pot      :      1.02s CPU      1.06s WALL (       7 calls)
     mix_rho      :      0.02s CPU      0.00s WALL (       7 calls)

     Called by c_bands:
     init_us_2    :      0.02s CPU      0.05s WALL (     340 calls)
     cegterg      :      0.22s CPU      0.26s WALL (     140 calls)

     Called by sum_band:
     sum_band:bec :      0.02s CPU      0.00s WALL (     140 calls)
     addusdens    :      0.03s CPU      0.08s WALL (       7 calls)

     Called by *egterg:
     h_psi        :      0.19s CPU      0.23s WALL (     421 calls)
     s_psi        :      0.02s CPU      0.01s WALL (     421 calls)
     g_psi        :      0.00s CPU      0.00s WALL (     261 calls)
     cdiaghg      :      0.02s CPU      0.01s WALL (     381 calls)

     Called by h_psi:
     h_psi:pot    :      0.19s CPU      0.23s WALL (     421 calls)
     h_psi:calbec :      0.00s CPU      0.02s WALL (     421 calls)
     vloc_psi     :      0.16s CPU      0.19s WALL (     421 calls)
     add_vuspsi   :      0.03s CPU      0.02s WALL (     421 calls)

     General routines
     calbec       :      0.00s CPU      0.02s WALL (     661 calls)
     fft          :      0.00s CPU      0.01s WALL (     103 calls)
     ffts         :      0.00s CPU      0.00s WALL (       7 calls)
     fftw         :      0.19s CPU      0.18s WALL (    1846 calls)

     Parallel routines

     PWSCF        :      2.55s CPU      2.82s WALL


   This run was terminated on:  10:24: 9   3Jul2020            

=------------------------------------------------------------------------------=
   JOB DONE.
=------------------------------------------------------------------------------=
