
     Program PHONON v.6.5 starts on  4Aug2020 at 13:27:48 

     This program is part of the open-source Quantum ESPRESSO suite
     for quantum simulation of materials; please cite
         "P. Giannozzi et al., J. Phys.:Condens. Matter 21 395502 (2009);
         "P. Giannozzi et al., J. Phys.:Condens. Matter 29 465901 (2017);
          URL http://www.quantum-espresso.org", 
     in publications or presentations arising from this work. More details at
     http://www.quantum-espresso.org/quote

     Parallel version (MPI), running on     1 processors

     MPI processes distributed on     1 nodes
      Title line not specified: using 'default'.

     Reading xml data from directory:

     ./si.save/
     Message from routine volume:
     axis vectors are left-handed

     IMPORTANT: XC functional enforced from input :
     Exchange-correlation= PBE
                           (   1   4   3   4   0   0   0)
     Any further DFT definition will be discarded
     Please, verify this is what you really want

               file Si.pbe-n-kjpaw_psl.1.0.0.UPF: wavefunction(s)  3S 3P renormalized

     G-vector sticks info
     --------------------
     sticks:   dense  smooth     PW     G-vecs:    dense   smooth      PW
     Sum         409     409    127                 5329     5329     965

     Reading collected, re-writing distributed wavefunctions

     Calculation of q =    0.0000000   0.0000000   0.0000000

     default                                                                    

     bravais-lattice index     =            0
     lattice parameter (alat)  =       5.4307  a.u.
     unit-cell volume          =      40.0412 (a.u.)^3
     number of atoms/cell      =            1
     number of atomic types    =            1
     kinetic-energy cut-off    =     100.0000  Ry
     charge density cut-off    =     400.0000  Ry
     convergence threshold     =      1.0E-12
     beta                      =       0.7000
     number of iterations used =            4
     Exchange-correlation= PBE
                           (   1   4   3   4   0   0   0)


     celldm(1)=    5.43070  celldm(2)=    0.00000  celldm(3)=    0.00000
     celldm(4)=    0.00000  celldm(5)=    0.00000  celldm(6)=    0.00000

     crystal axes: (cart. coord. in units of alat)
               a(1) = (  0.5000  0.5000  0.0000 )  
               a(2) = (  0.5000  0.0000  0.5000 )  
               a(3) = (  0.0000  0.5000  0.5000 )  

     reciprocal axes: (cart. coord. in units 2 pi/alat)
               b(1) = (  1.0000  1.0000 -1.0000 )  
               b(2) = (  1.0000 -1.0000  1.0000 )  
               b(3) = ( -1.0000  1.0000  1.0000 )  


     Atoms inside the unit cell: 

     Cartesian axes

     site n.  atom      mass           positions (alat units)
        1     Si  28.0850   tau(    1) = (    0.00000    0.00000    0.00000  )

     Computing dynamical matrix for 
                    q = (   0.0000000   0.0000000   0.0000000 )

     49 Sym.Ops. (with q -> -q+G )


     G cutoff =  298.8215  (   5329 G-vectors)     FFT grid: ( 25, 25, 25)
     number of k points=    20
                       cart. coord. in units 2pi/alat
        k(    1) = (   0.0000000   0.0000000   0.0000000), wk =   0.0058309
        k(    2) = (  -0.1428571   0.1428571   0.1428571), wk =   0.0466472
        k(    3) = (  -0.2857143   0.2857143   0.2857143), wk =   0.0466472
        k(    4) = (  -0.4285714   0.4285714   0.4285714), wk =   0.0466472
        k(    5) = (   0.0000000   0.0000000   0.2857143), wk =   0.0349854
        k(    6) = (  -0.1428571   0.1428571   0.4285714), wk =   0.1399417
        k(    7) = (  -0.2857143   0.2857143   0.5714286), wk =   0.1399417
        k(    8) = (   0.5714286  -0.5714286  -0.2857143), wk =   0.1399417
        k(    9) = (   0.4285714  -0.4285714  -0.1428571), wk =   0.1399417
        k(   10) = (   0.2857143  -0.2857143  -0.0000000), wk =   0.0699708
        k(   11) = (   0.0000000   0.0000000   0.5714286), wk =   0.0349854
        k(   12) = (  -0.1428571   0.1428571   0.7142857), wk =   0.1399417
        k(   13) = (   0.7142857  -0.7142857  -0.1428571), wk =   0.1399417
        k(   14) = (   0.5714286  -0.5714286   0.0000000), wk =   0.0699708
        k(   15) = (   0.0000000   0.0000000   0.8571429), wk =   0.0349854
        k(   16) = (   0.8571429  -0.8571429  -0.0000000), wk =   0.0699708
        k(   17) = (   0.0000000   0.2857143   0.5714286), wk =   0.1399417
        k(   18) = (   0.8571429  -0.5714286  -0.2857143), wk =   0.2798834
        k(   19) = (   1.0000000  -0.7142857  -0.1428571), wk =   0.1399417
        k(   20) = (   0.8571429  -0.5714286   0.0000000), wk =   0.1399417

     PseudoPot. # 1 for Si read from file:
     $PSEUDO_DIR/Si.pbe-n-kjpaw_psl.1.0.0.UPF
     MD5 check sum: c39c59da582df4a0d9f10159256ea34e
     Pseudo is Projector augmented-wave + core cor, Zval =  4.0
     Generated using "atomic" code by A. Dal Corso v.6.3
     Shape of augmentation charge: PSQ
     Using radial grid of 1141 points,  6 beta functions with: 
                l(1) =   0
                l(2) =   0
                l(3) =   1
                l(4) =   1
                l(5) =   2
                l(6) =   2
     Q(r) pseudized with 0 coefficients 


     Mode symmetry, O_h (m-3m)  point group:


     Atomic displacements:
     There are   1 irreducible representations

     Representation     1      3 modes -T_1u G_15  G_4-  To be done



     Alpha used in Ewald sum =   2.8000
     PHONON       :      2.92s CPU      3.08s WALL



     Representation #  1 modes #   1  2  3

     Self-consistent Calculation

      iter #   1 total cpu time :     7.4 secs   av.it.:   6.3
      thresh= 1.000E-02 alpha_mix =  0.700 |ddv_scf|^2 =  5.449E-07

      iter #   2 total cpu time :    11.9 secs   av.it.:   8.8
      thresh= 7.381E-05 alpha_mix =  0.700 |ddv_scf|^2 =  4.024E-08

      iter #   3 total cpu time :    16.4 secs   av.it.:   8.9
      thresh= 2.006E-05 alpha_mix =  0.700 |ddv_scf|^2 =  1.132E-09

      iter #   4 total cpu time :    20.8 secs   av.it.:   8.1
      thresh= 3.365E-06 alpha_mix =  0.700 |ddv_scf|^2 =  4.306E-13

     End of self-consistent calculation

     Convergence has been achieved 

     Number of q in the star =    1
     List of q in the star:
          1   0.000000000   0.000000000   0.000000000

     Diagonalizing the dynamical matrix

     q = (    0.000000000   0.000000000   0.000000000 ) 

 **************************************************************************
     freq (    1) =      -0.478836 [THz] =     -15.972251 [cm-1]
     freq (    2) =      -0.478836 [THz] =     -15.972251 [cm-1]
     freq (    3) =      -0.478836 [THz] =     -15.972251 [cm-1]
 **************************************************************************

     Mode symmetry, O_h (m-3m)  point group:

     freq (  1 -  3) =        -16.0  [cm-1]   --> T_1u G_15  G_4- I  

     PHONON       :     20.27s CPU     20.97s WALL

     INITIALIZATION: 
     phq_setup    :      0.03s CPU      0.05s WALL (       1 calls)
     phq_init     :      0.80s CPU      0.80s WALL (       1 calls)

     phq_init     :      0.80s CPU      0.80s WALL (       1 calls)
     set_drhoc    :      0.39s CPU      0.39s WALL (       3 calls)
     init_vloc    :      0.00s CPU      0.00s WALL (       1 calls)
     init_us_1    :      0.58s CPU      0.61s WALL (       1 calls)
     newd         :      0.03s CPU      0.05s WALL (       1 calls)
     dvanqq       :      0.11s CPU      0.11s WALL (       1 calls)
     drho         :      0.12s CPU      0.14s WALL (       1 calls)

     DYNAMICAL MATRIX:
     dynmat0      :      0.28s CPU      0.28s WALL (       1 calls)
     phqscf       :     17.33s CPU     17.85s WALL (       1 calls)
     dynmatrix    :      0.00s CPU      0.00s WALL (       1 calls)

     phqscf       :     17.33s CPU     17.85s WALL (       1 calls)
     solve_linter :     17.30s CPU     17.80s WALL (       1 calls)
     drhodv       :      0.03s CPU      0.03s WALL (       1 calls)

     dynmat0      :      0.28s CPU      0.28s WALL (       1 calls)
     dynmat_us    :      0.02s CPU      0.02s WALL (       1 calls)
     d2ionq       :      0.00s CPU      0.00s WALL (       1 calls)
     dynmatcc     :      0.27s CPU      0.26s WALL (       1 calls)

     dynmat_us    :      0.02s CPU      0.02s WALL (       1 calls)
     addusdynmat  :      0.00s CPU      0.00s WALL (       1 calls)

     phqscf       :     17.33s CPU     17.85s WALL (       1 calls)
     solve_linter :     17.30s CPU     17.80s WALL (       1 calls)

     solve_linter :     17.30s CPU     17.80s WALL (       1 calls)
     dvqpsi_us    :      0.20s CPU      0.15s WALL (      60 calls)
     ortho        :      0.03s CPU      0.04s WALL (     240 calls)
     cgsolve      :      3.41s CPU      3.74s WALL (     240 calls)
     incdrhoscf   :      0.36s CPU      0.39s WALL (     240 calls)
     addusddens   :      0.16s CPU      0.16s WALL (       5 calls)
     vpsifft      :      0.31s CPU      0.27s WALL (     180 calls)
     dv_of_drho   :      0.11s CPU      0.09s WALL (      12 calls)
     mix_pot      :      0.00s CPU      0.04s WALL (       4 calls)
     psymdvscf    :      0.38s CPU      0.39s WALL (       4 calls)
     newdq        :      0.20s CPU      0.23s WALL (       4 calls)
     adddvscf     :      0.00s CPU      0.01s WALL (     180 calls)
     drhodvus     :      0.00s CPU      0.00s WALL (       1 calls)

     dvqpsi_us    :      0.20s CPU      0.15s WALL (      60 calls)
     dvqpsi_us_on :      0.06s CPU      0.03s WALL (      60 calls)

     cgsolve      :      3.41s CPU      3.74s WALL (     240 calls)
     ch_psi       :      3.34s CPU      3.67s WALL (    2341 calls)

     ch_psi       :      3.34s CPU      3.67s WALL (    2341 calls)
     h_psi        :      2.88s CPU      3.12s WALL (    2341 calls)
     last         :      0.30s CPU      0.34s WALL (    2341 calls)

     h_psi        :      2.88s CPU      3.12s WALL (    2341 calls)
     add_vuspsi   :      0.17s CPU      0.12s WALL (    2341 calls)

     incdrhoscf   :      0.36s CPU      0.39s WALL (     240 calls)
     addusdbec    :      0.02s CPU      0.02s WALL (     300 calls)

     drhodvus     :      0.00s CPU      0.00s WALL (       1 calls)

      General routines
     calbec       :      0.27s CPU      0.33s WALL (    5662 calls)
     fft          :      0.17s CPU      0.12s WALL (     232 calls)
     ffts         :      0.03s CPU      0.04s WALL (      66 calls)
     fftw         :      3.06s CPU      3.26s WALL (   10060 calls)
     davcio       :      0.00s CPU      0.06s WALL (     914 calls)
     write_rec    :      0.00s CPU      0.07s WALL (       5 calls)


     PHONON       :     20.27s CPU     20.97s WALL


   This run was terminated on:  13:28: 9   4Aug2020            

=------------------------------------------------------------------------------=
   JOB DONE.
=------------------------------------------------------------------------------=
